 Gaussian 16, Revision A.03,
 Gaussian 16:  ES64L-G16RevA.03 25-Dec-2016

 --------------------------------------------
 #n B3LYP/6-311+g** Opt geom=check guess=read
 --------------------------------------------

 -------
 sps_syn
 -------
 Structure from the checkpoint file:  "sps_syn.chk"
 Charge = -3 Multiplicity = 1

 SCF Done:  E(RB3LYP) =  -2800.47339529     A.U. after   15 cycles
 SCF Done:  E(RB3LYP) =  -2800.47369555     A.U. after   15 cycles
 SCF Done:  E(RB3LYP) =  -2800.47384115     A.U. after   14 cycles
 SCF Done:  E(RB3LYP) =  -2800.47383222     A.U. after   15 cycles
 SCF Done:  E(RB3LYP) =  -2800.47387062     A.U. after   13 cycles
 SCF Done:  E(RB3LYP) =  -2800.47387221     A.U. after   13 cycles
 SCF Done:  E(RB3LYP) =  -2800.47387628     A.U. after   13 cycles
 SCF Done:  E(RB3LYP) =  -2800.47387883     A.U. after   13 cycles
 SCF Done:  E(RB3LYP) =  -2800.47388227     A.U. after   14 cycles
 SCF Done:  E(RB3LYP) =  -2800.47388269     A.U. after   12 cycles
 SCF Done:  E(RB3LYP) =  -2800.47388340     A.U. after   12 cycles
 SCF Done:  E(RB3LYP) =  -2800.47388387     A.U. after   12 cycles
 SCF Done:  E(RB3LYP) =  -2800.47388469     A.U. after   12 cycles
 SCF Done:  E(RB3LYP) =  -2800.47388566     A.U. after   13 cycles
 SCF Done:  E(RB3LYP) =  -2800.47388605     A.U. after   12 cycles
 SCF Done:  E(RB3LYP) =  -2800.47388649     A.U. after   12 cycles
 SCF Done:  E(RB3LYP) =  -2800.47388669     A.U. after   12 cycles
 SCF Done:  E(RB3LYP) =  -2800.47388677     A.U. after   11 cycles
 SCF Done:  E(RB3LYP) =  -2800.47388679     A.U. after   11 cycles
 SCF Done:  E(RB3LYP) =  -2800.47388680     A.U. after   10 cycles
 Optimization completed.
    -- Stationary point found.

                         Standard orientation:
 ---------------------------------------------------------------------
 Center     Atomic      Atomic             Coordinates (Angstroms)
 Number     Number       Type             X           Y           Z
 ---------------------------------------------------------------------
      1          6           0       -2.101275   -0.989290   -1.529451
      2          6           0       -1.970698    0.162819   -0.516207
      3          1           0       -2.782659   -1.763868   -1.166669
      4          1           0       -1.141407   -1.469786   -1.721013
      5          6           0       -3.287670    0.924773   -0.374809
      6          1           0       -1.241214    0.876080   -0.916654
      7          6           0       -3.356363    2.297178   -0.638938
      8          6           0       -4.553161    3.006368   -0.514966
      9          1           0       -2.456216    2.822956   -0.946736
     10          6           0       -5.715469    2.351740   -0.116990
     11          1           0       -4.593101    4.071476   -0.710793
     12          6           0       -5.665758    0.985496    0.158970
     13          6           0       -4.468037    0.284859    0.030641
     14          1           0       -6.568948    0.483530    0.485970
     15          1           0       -4.455734   -0.778297    0.250975
     16         16           0       -7.305228    3.253625   -0.017731
     17          8           0       -7.947815    3.033265   -1.342558
     18          8           0       -6.920654    4.669181    0.231380
     19          8           0       -8.032413    2.609291    1.109614
     20          1           0       -2.496666   -0.614698   -2.478230
     21          6           0       -1.470561   -0.288040    0.880405
     22          6           0       -0.016300   -0.830603    1.055096
     23          1           0       -1.559328    0.581154    1.542700
     24          1           0       -2.165133   -1.037828    1.274627
     25          6           0        0.162335   -2.297266    0.649277
     26          1           0        0.118962   -0.829666    2.146158
     27          6           0        0.881931   -2.725251   -0.470956
     28          6           0        1.015904   -4.082688   -0.777176
     29          1           0        1.352585   -1.998262   -1.124328
     30          6           0        0.431361   -5.049525    0.034741
     31          1           0        1.567901   -4.401842   -1.653415
     32          6           0       -0.291774   -4.644190    1.156388
     33          6           0       -0.415935   -3.290783    1.454994
     34          1           0       -0.756307   -5.396155    1.783633
     35          1           0       -0.975238   -2.994716    2.339225
     36         16           0        0.661869   -6.832116   -0.310528
     37          8           0        0.983419   -6.896956   -1.761130
     38          8           0       -0.638495   -7.454384    0.058596
     39          8           0        1.787088   -7.243054    0.573201
     40          6           0        1.048220    0.146341    0.511394
     41          6           0        2.450403   -0.077796    1.118272
     42          1           0        0.726672    1.167040    0.747806
     43          1           0        1.110146    0.101818   -0.580834
     44          6           0        3.493416    0.949412    0.722899
     45          1           0        2.348618   -0.074120    2.210992
     46          6           0        3.533582    2.210177    1.335719
     47          6           0        4.517240    3.142614    1.014322
     48          1           0        2.793718    2.457086    2.093176
     49          6           0        5.491254    2.835071    0.063890
     50          1           0        4.555302    4.102989    1.515151
     51          6           0        5.459906    1.593890   -0.565650
     52          6           0        4.471019    0.664113   -0.236295
     53          1           0        6.230981    1.357182   -1.289205
     54          1           0        4.473013   -0.309992   -0.717974
     55         16           0        6.783653    4.062152   -0.356644
     56          8           0        6.128991    4.996682   -1.311136
     57          8           0        7.134274    4.691474    0.946012
     58          8           0        7.880872    3.258149   -0.960214
     59          1           0        2.805796   -1.076343    0.850342
 ---------------------------------------------------------------------

 The electronic state is 1-A.
 Alpha  occ. eigenvalues --  -88.79985 -88.79948 -88.79850 -18.84297 -18.84245
 Alpha  occ. eigenvalues --  -18.84242 -18.84221 -18.84147 -18.84119 -18.84103
 Alpha  occ. eigenvalues --  -18.84096 -18.83994  -9.99037  -9.98576  -9.98197
 Alpha  occ. eigenvalues --   -9.98193  -9.97925  -9.97843  -9.97822  -9.97689
 Alpha  occ. eigenvalues --   -9.97550  -9.97443  -9.97428  -9.97289  -9.97187
 Alpha  occ. eigenvalues --   -9.97184  -9.97128  -9.97093  -9.97072  -9.97017
 Alpha  occ. eigenvalues --   -9.96921  -9.96850  -9.96828  -9.96767  -9.96763
 Alpha  occ. eigenvalues --   -9.96233  -7.85835  -7.85797  -7.85698  -5.82092
 Alpha  occ. eigenvalues --   -5.82081  -5.82055  -5.82054  -5.82045  -5.82016
 Alpha  occ. eigenvalues --   -5.81954  -5.81945  -5.81919  -0.86018  -0.85972
 Alpha  occ. eigenvalues --   -0.85883  -0.72446  -0.72415  -0.72330  -0.72199
 Alpha  occ. eigenvalues --   -0.72141  -0.72041  -0.66409  -0.65866  -0.65665
 Alpha  occ. eigenvalues --   -0.62265  -0.59750  -0.57343  -0.54407  -0.54399
 Alpha  occ. eigenvalues --   -0.54286  -0.53794  -0.53031  -0.50894  -0.46294
 Alpha  occ. eigenvalues --   -0.43725  -0.42242  -0.40732  -0.40577  -0.40466
 Alpha  occ. eigenvalues --   -0.39325  -0.38387  -0.35879  -0.35080  -0.35024
 Alpha  occ. eigenvalues --   -0.34890  -0.30151  -0.29506  -0.28929  -0.27350
 Alpha  occ. eigenvalues --   -0.26851  -0.26291  -0.25802  -0.24935  -0.24771
 Alpha  occ. eigenvalues --   -0.24467  -0.24107  -0.23404  -0.22965  -0.22221
 Alpha  occ. eigenvalues --   -0.21933  -0.21761  -0.21580  -0.21535  -0.21104
 Alpha  occ. eigenvalues --   -0.20346  -0.20291  -0.20238  -0.20069  -0.19800
 Alpha  occ. eigenvalues --   -0.19703  -0.19639  -0.18538  -0.17870  -0.16930
 Alpha  occ. eigenvalues --   -0.16343  -0.16056  -0.15456  -0.15169  -0.14873
 Alpha  occ. eigenvalues --   -0.14460  -0.13650  -0.13444  -0.12865  -0.12539
 Alpha  occ. eigenvalues --   -0.11838  -0.08407  -0.08376  -0.08356  -0.08319
 Alpha  occ. eigenvalues --   -0.08269  -0.08208  -0.06824  -0.06726  -0.06362
 Alpha  occ. eigenvalues --   -0.05353  -0.05224  -0.05212  -0.04785  -0.04700
 Alpha  occ. eigenvalues --   -0.04645  -0.04639  -0.04636  -0.04542  -0.02520
 Alpha  occ. eigenvalues --   -0.02431  -0.02125  -0.00481  -0.00449  -0.00337
 Alpha virt. eigenvalues --    0.17662   0.18311   0.18641   0.18827   0.18939
 Alpha virt. eigenvalues --    0.19018   0.19137   0.19540   0.19947   0.20206
 Alpha virt. eigenvalues --    0.21365   0.21544   0.21967   0.22219   0.23024

 Mulliken charges:
               1
     1  C   -0.675259
     2  C    0.282284
     3  H    0.143467
     4  H    0.167440
     5  C    0.721433
     6  H    0.111440
     7  C   -0.160673
     8  C   -0.389739
     9  H    0.096777
    10  C   -0.258673
    11  H    0.142682
    12  C   -0.411697
    13  C   -0.496871
    14  H    0.138269
    15  H    0.102122
    16  S    0.630698
    17  O   -0.304221
    18  O   -0.367447
    19  O   -0.368056
    20  H    0.129332
    21  C   -0.794405
    22  C    0.738933
    23  H    0.133239
    24  H    0.127120
    25  C    1.204230
    26  H    0.119920
    27  C   -0.549681
    28  C   -0.147821
    29  H    0.108991
    30  C   -0.493229
    31  H    0.142837
    32  C   -0.476301
    33  C   -0.582098
    34  H    0.137143
    35  H    0.092093
    36  S    0.710871
    37  O   -0.364420
    38  O   -0.361149
    39  O   -0.288133
    40  C   -0.826752
    41  C   -0.479335
    42  H    0.154081
    43  H    0.155377
    44  C    0.727143
    45  H    0.127378
    46  C   -0.410332
    47  C   -0.563414
    48  H    0.092913
    49  C   -0.311572
    50  H    0.138834
    51  C   -0.371580
    52  C   -0.087456
    53  H    0.146275
    54  H    0.102197
    55  S    0.615382
    56  O   -0.297823
    57  O   -0.374077
    58  O   -0.374997
    59  H    0.146309
 Sum of Mulliken charges =  -3.00000

 Dipole moment (field-independent basis, Debye):
    X=             -0.3335    Y=             -3.1065    Z=              4.0010  Tot=              5.0764
 Quadrupole moment (field-independent basis, Debye-Ang):
   XX=           -796.4868   YY=           -659.9608   ZZ=           -267.3851
   XY=              5.7984   XZ=              8.4987   YZ=             -2.8103

 Normal termination of Gaussian 16 at Thu Feb  4 12:59:55 2021.
