 Gaussian 16, Revision A.03,
 Gaussian 16:  ES64L-G16RevA.03 25-Dec-2016

 -------------------------------------------
 #n B3LYP/6-31G(d) Opt geom=check guess=read
 -------------------------------------------

 -------
 sps_iso
 -------
 Structure from the checkpoint file:  "sps_iso.chk"
 Charge = -3 Multiplicity = 1

 SCF Done:  E(RB3LYP) =  -2799.90368185     A.U. after    1 cycles

 The electronic state is 1-A.
 Alpha  occ. eigenvalues --  -88.83108 -88.82637 -88.82535 -18.84865 -18.84858
 Alpha  occ. eigenvalues --  -18.84711 -18.84398 -18.84392 -18.84293 -18.84291
 Alpha  occ. eigenvalues --  -18.84239 -18.84112  -9.99255  -9.98819  -9.98623
 Alpha  occ. eigenvalues --   -9.98562  -9.98193  -9.98071  -9.98045  -9.97759
 Alpha  occ. eigenvalues --   -9.97753  -9.97725  -9.97493  -9.97393  -9.97259
 Alpha  occ. eigenvalues --   -9.97254  -9.97221  -9.97202  -9.97140  -9.96998
 Alpha  occ. eigenvalues --   -9.96848  -9.96831  -9.96755  -9.96693  -9.96669
 Alpha  occ. eigenvalues --   -9.96592  -7.85130  -7.84658  -7.84555  -5.81594
 Alpha  occ. eigenvalues --   -5.81586  -5.81575  -5.81121  -5.81116  -5.81104
 Alpha  occ. eigenvalues --   -5.81020  -5.81012  -5.80999  -0.82975  -0.82495
 Alpha  occ. eigenvalues --   -0.82403  -0.69586  -0.69347  -0.69097  -0.68994
 Alpha  occ. eigenvalues --   -0.68879  -0.68790  -0.64507  -0.64010  -0.63525
 Alpha  occ. eigenvalues --   -0.60425  -0.58044  -0.55634  -0.52860  -0.52407
 Alpha  occ. eigenvalues --   -0.52237  -0.51777  -0.51127  -0.49384  -0.45339
 Alpha  occ. eigenvalues --   -0.41662  -0.40272  -0.39159  -0.38609  -0.38500
 Alpha  occ. eigenvalues --   -0.37446  -0.36495  -0.34060  -0.33244  -0.32724
 Alpha  occ. eigenvalues --   -0.32661  -0.28359  -0.27425  -0.26560  -0.25917
 Alpha  occ. eigenvalues --   -0.25323  -0.24086  -0.23621  -0.23139  -0.22980
 Alpha  occ. eigenvalues --   -0.22627  -0.22257  -0.21505  -0.21346  -0.20694
 Alpha  occ. eigenvalues --   -0.20364  -0.19940  -0.19654  -0.19237  -0.18946
 Alpha  occ. eigenvalues --   -0.18436  -0.17945  -0.17722  -0.17411  -0.17282
 Alpha  occ. eigenvalues --   -0.17060  -0.16870  -0.16776  -0.16296  -0.15411
 Alpha  occ. eigenvalues --   -0.14424  -0.14009  -0.13687  -0.13339  -0.13201
 Alpha  occ. eigenvalues --   -0.12446  -0.12301  -0.11612  -0.10585  -0.10461
 Alpha  occ. eigenvalues --   -0.10304  -0.05742  -0.05661  -0.05266  -0.05205
 Alpha  occ. eigenvalues --   -0.05143  -0.05098  -0.04619  -0.04267  -0.03892
 Alpha  occ. eigenvalues --   -0.03563  -0.03043  -0.02947  -0.02238  -0.02159
 Alpha  occ. eigenvalues --   -0.01761  -0.01675  -0.01667  -0.01572  -0.00240
 Alpha  occ. eigenvalues --    0.00176   0.00412   0.02084   0.02546   0.02667
 Alpha virt. eigenvalues --    0.20899   0.21310   0.21388   0.21614   0.21794
 Alpha virt. eigenvalues --    0.22064   0.27216   0.29477   0.29992   0.30810
 Alpha virt. eigenvalues --    0.31789   0.32328   0.33107   0.34371   0.34918

 Mulliken charges:
               1
     1  C   -0.449296
     2  C   -0.157013
     3  H    0.131131
     4  H    0.146526
     5  C    0.168195
     6  H    0.144309
     7  C   -0.199762
     8  C   -0.159642
     9  H    0.110898
    10  C   -0.116007
    11  H    0.138708
    12  C   -0.162107
    13  C   -0.183723
    14  H    0.136787
    15  H    0.097459
    16  S    1.087879
    17  O   -0.612966
    18  O   -0.625626
    19  O   -0.627108
    20  H    0.136492
    21  C   -0.263252
    22  C   -0.160795
    23  H    0.130658
    24  H    0.127962
    25  C    0.160575
    26  H    0.112538
    27  C   -0.184819
    28  C   -0.166020
    29  H    0.108038
    30  C   -0.114412
    31  H    0.140818
    32  C   -0.156919
    33  C   -0.183327
    34  H    0.136979
    35  H    0.092609
    36  S    1.089680
    37  O   -0.608127
    38  O   -0.624381
    39  O   -0.628402
    40  C   -0.263349
    41  C   -0.353878
    42  H    0.138322
    43  H    0.139675
    44  C    0.171471
    45  H    0.121613
    46  C   -0.184538
    47  C   -0.160370
    48  H    0.097264
    49  C   -0.115300
    50  H    0.138796
    51  C   -0.159862
    52  C   -0.178259
    53  H    0.137694
    54  H    0.094440
    55  S    1.089522
    56  O   -0.624284
    57  O   -0.624931
    58  O   -0.613512
    59  H    0.134948
 Sum of Mulliken charges =  -3.00000

 Dipole moment (field-independent basis, Debye):
    X=             -0.8694    Y=              0.3244    Z=              3.3930  Tot=              3.5176
 Quadrupole moment (field-independent basis, Debye-Ang):
   XX=           -818.7819   YY=           -599.8443   ZZ=           -256.1908
   XY=             -4.5445   XZ=            -11.4706   YZ=            -10.5656

 Optimization completed.
    -- Stationary point found.

                         Standard orientation:
 ---------------------------------------------------------------------
 Center     Atomic      Atomic             Coordinates (Angstroms)
 Number     Number       Type             X           Y           Z
 ---------------------------------------------------------------------
      1          6           0        0.979696    0.624064   -1.744591
      2          6           0        1.820876    0.313933   -0.491413
      3          1           0        0.395207    1.544831   -1.625623
      4          1           0        0.284821   -0.191056   -1.967940
      5          6           0        2.967706    1.314005   -0.338184
      6          1           0        2.271089   -0.675563   -0.641125
      7          6           0        4.299390    0.878290   -0.288129
      8          6           0        5.357324    1.780893   -0.151420
      9          1           0        4.509228   -0.188448   -0.355149
     10          6           0        5.109950    3.151791   -0.061261
     11          1           0        6.384359    1.432368   -0.097526
     12          6           0        3.787209    3.601404   -0.097813
     13          6           0        2.734754    2.695397   -0.234497
     14          1           0        3.597231    4.666192   -0.000559
     15          1           0        1.713134    3.071629   -0.258755
     16         16           0        6.488146    4.342485    0.040720
     17          8           0        6.795173    4.680354   -1.377552
     18          8           0        7.573302    3.590785    0.731606
     19          8           0        5.930612    5.480484    0.824926
     20          1           0        1.631892    0.756393   -2.615573
     21          6           0        1.002591    0.247248    0.824774
     22          6           0       -0.131691   -0.816548    0.991773
     23          1           0        1.730573    0.065816    1.625989
     24          1           0        0.584135    1.241194    1.032677
     25          6           0        0.320046   -2.229232    0.613730
     26          1           0       -0.297400   -0.849422    2.080737
     27          6           0       -0.074781   -2.881692   -0.563245
     28          6           0        0.332052   -4.190888   -0.840190
     29          1           0       -0.731875   -2.376213   -1.266725
     30          6           0        1.149084   -4.885947    0.051694
     31          1           0       -0.005915   -4.698279   -1.738704
     32          6           0        1.557271   -4.247325    1.226123
     33          6           0        1.146867   -2.943273    1.498054
     34          1           0        2.168965   -4.799073    1.933600
     35          1           0        1.456851   -2.469493    2.429488
     36         16           0        1.697279   -6.588045   -0.312015
     37          8           0        2.995048   -6.422780   -1.022503
     38          8           0        0.608145   -7.148613   -1.159866
     39          8           0        1.819588   -7.221085    1.031821
     40          6           0       -1.511225   -0.420192    0.403732
     41          6           0       -2.161499    0.788351    1.115538
     42          1           0       -1.453770   -0.209095   -0.669460
     43          1           0       -2.183536   -1.281472    0.507642
     44          6           0       -3.598296    1.066337    0.711010
     45          1           0       -2.125286    0.607332    2.200158
     46          6           0       -3.915079    2.057830   -0.228079
     47          6           0       -5.240089    2.334789   -0.572629
     48          1           0       -3.109167    2.627637   -0.689795
     49          6           0       -6.287107    1.624899    0.018597
     50          1           0       -5.479126    3.099013   -1.306077
     51          6           0       -5.985689    0.617668    0.939286
     52          6           0       -4.660163    0.345715    1.279212
     53          1           0       -6.802847    0.051566    1.376284
     54          1           0       -4.441432   -0.436115    2.006327
     55         16           0       -8.022183    2.061314   -0.337744
     56          8           0       -7.990857    2.584806   -1.731937
     57          8           0       -8.763773    0.779761   -0.173773
     58          8           0       -8.360091    3.089294    0.686728
     59          1           0       -1.561349    1.689034    0.936690
 ---------------------------------------------------------------------

 Normal termination of Gaussian 16 at Thu Feb  4 10:44:42 2021.
