 Gaussian 16, Revision A.03,
 Gaussian 16:  ES64L-G16RevA.03 25-Dec-2016

 --------------------------------------------
 #n B3LYP/6-311+g** Opt geom=check guess=read
 --------------------------------------------

 -------
 dvb_syn
 -------
 Structure from the checkpoint file:  "dvb_syn.chk"
 Charge =  0 Multiplicity = 1

 SCF Done:  E(RB3LYP) =  -1402.35001694     A.U. after   13 cycles
 SCF Done:  E(RB3LYP) =  -1402.35030569     A.U. after   13 cycles
 SCF Done:  E(RB3LYP) =  -1402.35019405     A.U. after   12 cycles
 SCF Done:  E(RB3LYP) =  -1402.35029127     A.U. after   11 cycles
 SCF Done:  E(RB3LYP) =  -1402.35031061     A.U. after   12 cycles
 SCF Done:  E(RB3LYP) =  -1402.35032827     A.U. after   11 cycles
 SCF Done:  E(RB3LYP) =  -1402.35032826     A.U. after   11 cycles
 SCF Done:  E(RB3LYP) =  -1402.35032953     A.U. after   10 cycles
 SCF Done:  E(RB3LYP) =  -1402.35032995     A.U. after   10 cycles
 SCF Done:  E(RB3LYP) =  -1402.35032999     A.U. after    8 cycles
 SCF Done:  E(RB3LYP) =  -1402.35033012     A.U. after    8 cycles
 Optimization completed.
    -- Stationary point found.

                         Standard orientation:
 ---------------------------------------------------------------------
 Center     Atomic      Atomic             Coordinates (Angstroms)
 Number     Number       Type             X           Y           Z
 ---------------------------------------------------------------------
      1          6           0        3.008053    2.091203   -2.194871
      2          6           0        2.570506    0.626394   -2.343315
      3          1           0        2.411679    2.731932   -2.849833
      4          1           0        4.059099    2.207334   -2.473618
      5          6           0        3.443209   -0.357642   -1.571141
      6          1           0        2.698426    0.371172   -3.402899
      7          6           0        4.100912   -0.029378   -0.380286
      8          6           0        4.869859   -0.968413    0.305839
      9          1           0        4.024484    0.974266    0.021605
     10          6           0        5.016107   -2.276638   -0.167281
     11          1           0        5.364793   -0.666659    1.223235
     12          6           0        4.363351   -2.603703   -1.360065
     13          6           0        3.596441   -1.665150   -2.046181
     14          1           0        4.462589   -3.607115   -1.763393
     15          1           0        3.113212   -1.953994   -2.975335
     16          6           0        5.847681   -3.311472    0.576093
     17          6           0        7.320880   -2.877816    0.693165
     18          1           0        7.732267   -2.634675   -0.289694
     19          1           0        7.936295   -3.670044    1.126497
     20          1           0        7.424619   -1.990868    1.325778
     21          6           0        5.219004   -3.650599    1.948365
     22          1           0        5.822196   -4.229384   -0.024763
     23          6           0        5.861165   -4.842963    2.665399
     24          1           0        5.266440   -2.765328    2.593687
     25          1           0        4.154416   -3.856644    1.794684
     26          1           0        5.323307   -5.074244    3.589026
     27          1           0        6.902885   -4.650658    2.934399
     28          1           0        5.839051   -5.739854    2.037556
     29          1           0        2.883188    2.470012   -1.179457
     30          6           0        1.056571    0.395131   -2.062500
     31          6           0        0.567655    0.583888   -0.608495
     32          1           0        0.484772    1.028407   -2.748383
     33          1           0        0.832754   -0.636917   -2.353988
     34          6           0        0.358373    2.027204   -0.163700
     35          1           0        1.344693    0.170594    0.043374
     36          6           0       -0.239423    3.005262   -0.961509
     37          6           0       -0.453075    4.302915   -0.491675
     38          1           0       -0.541464    2.770650   -1.975949
     39          6           0       -0.086712    4.683692    0.802097
     40          1           0       -0.907022    5.020000   -1.163463
     41          6           0        0.520259    3.702268    1.599446
     42          6           0        0.735427    2.411374    1.130237
     43          1           0        0.846265    3.953673    2.603795
     44          1           0        1.216098    1.685443    1.779692
     45          6           0       -0.270493    6.095316    1.363727
     46          6           0       -1.124149    6.085193    2.648895
     47          1           0       -0.672109    5.463667    3.424304
     48          1           0       -2.126609    5.694266    2.458290
     49          1           0       -1.224221    7.097832    3.052254
     50          6           0       -0.780665    7.150892    0.355761
     51          1           0        0.734060    6.428249    1.657283
     52          6           0       -2.282468    7.128363    0.033740
     53          1           0       -0.536991    8.137194    0.766683
     54          1           0       -0.201785    7.067953   -0.570026
     55          1           0       -2.513045    7.858476   -0.747307
     56          1           0       -2.883589    7.389186    0.908254
     57          1           0       -2.623162    6.150954   -0.315574
     58          6           0       -0.691293   -0.281288   -0.314150
     59          6           0       -1.947910    0.033807   -1.148830
     60          1           0       -0.942336   -0.178412    0.746972
     61          1           0       -0.421308   -1.332805   -0.466056
     62          6           0       -3.116410   -0.855428   -0.784225
     63          1           0       -2.230006    1.079752   -0.999546
     64          6           0       -4.006334   -0.498655    0.232470
     65          6           0       -5.062613   -1.334929    0.591493
     66          1           0       -3.875312    0.447424    0.749261
     67          6           0       -5.273043   -2.558746   -0.050008
     68          1           0       -5.738383   -1.027406    1.383909
     69          6           0       -4.382756   -2.913584   -1.071022
     70          6           0       -3.326915   -2.079633   -1.429104
     71          1           0       -4.512971   -3.852015   -1.600398
     72          1           0       -2.657254   -2.382861   -2.228729
     73          6           0       -6.438839   -3.456720    0.340179
     74          6           0       -7.445264   -3.609711   -0.815448
     75          1           0       -8.315342   -4.191680   -0.496348
     76          1           0       -7.795977   -2.635010   -1.164021
     77          1           0       -6.994414   -4.125266   -1.668755
     78          6           0       -5.983025   -4.838927    0.858002
     79          1           0       -6.961138   -2.958676    1.166739
     80          6           0       -5.120883   -4.784499    2.121805
     81          1           0       -6.878345   -5.440348    1.055001
     82          1           0       -5.438095   -5.360132    0.061938
     83          1           0       -4.845936   -5.790082    2.452286
     84          1           0       -4.198433   -4.223164    1.952986
     85          1           0       -5.657724   -4.300796    2.944427
     86          1           0       -1.723720   -0.085467   -2.213835
 ---------------------------------------------------------------------

 The electronic state is 1-A.
 Alpha  occ. eigenvalues --  -10.18145 -10.17976 -10.17877 -10.17856 -10.17689
 Alpha  occ. eigenvalues --  -10.17658 -10.17647 -10.17645 -10.17608 -10.17547
 Alpha  occ. eigenvalues --  -10.17391 -10.17023 -10.17017 -10.17014 -10.16992
 Alpha  occ. eigenvalues --  -10.16957 -10.16957 -10.16954 -10.16934 -10.16851
 Alpha  occ. eigenvalues --  -10.16839 -10.16818 -10.16791 -10.16762 -10.16696
 Alpha  occ. eigenvalues --  -10.16668 -10.16649 -10.16624 -10.16457 -10.16039
 Alpha  occ. eigenvalues --  -10.15907 -10.15871 -10.15866 -10.15754 -10.15414
 Alpha  occ. eigenvalues --  -10.15319  -0.86598  -0.86222  -0.86022  -0.82859
 Alpha  occ. eigenvalues --   -0.81547  -0.81113  -0.79768  -0.78172  -0.76063
 Alpha  occ. eigenvalues --   -0.74659  -0.74454  -0.74216  -0.74012  -0.73550
 Alpha  occ. eigenvalues --   -0.72561  -0.71329  -0.71050  -0.69504  -0.66320
 Alpha  occ. eigenvalues --   -0.65010  -0.64781  -0.63174  -0.61776  -0.61121
 Alpha  occ. eigenvalues --   -0.60962  -0.60833  -0.60526  -0.58813  -0.57404
 Alpha  occ. eigenvalues --   -0.56170  -0.55805  -0.55724  -0.55049  -0.50743
 Alpha  occ. eigenvalues --   -0.49951  -0.49278  -0.47827  -0.47279  -0.47076
 Alpha  occ. eigenvalues --   -0.46626  -0.45847  -0.45665  -0.45248  -0.44892
 Alpha  occ. eigenvalues --   -0.44592  -0.44259  -0.44210  -0.43912  -0.43198
 Alpha  occ. eigenvalues --   -0.42904  -0.42410  -0.42306  -0.41842  -0.41788
 Alpha  occ. eigenvalues --   -0.41546  -0.41381  -0.40980  -0.40757  -0.40274
 Alpha  occ. eigenvalues --   -0.39614  -0.39504  -0.39413  -0.38842  -0.38514
 Alpha  occ. eigenvalues --   -0.38440  -0.37673  -0.37330  -0.37070  -0.36491
 Alpha  occ. eigenvalues --   -0.36178  -0.36086  -0.35988  -0.35120  -0.35028
 Alpha  occ. eigenvalues --   -0.34870  -0.34671  -0.34385  -0.34007  -0.33669
 Alpha  occ. eigenvalues --   -0.33356  -0.33227  -0.32842  -0.32802  -0.32341
 Alpha  occ. eigenvalues --   -0.32220  -0.32213  -0.32008  -0.31683  -0.31416
 Alpha  occ. eigenvalues --   -0.31253  -0.30750  -0.25355  -0.25240  -0.25090
 Alpha  occ. eigenvalues --   -0.23996  -0.23706  -0.23084
 Alpha virt. eigenvalues --   -0.01645  -0.01490  -0.01169  -0.01067  -0.01048
 Alpha virt. eigenvalues --   -0.00571  -0.00403   0.00118   0.00382   0.00577
 Alpha virt. eigenvalues --    0.01146   0.01376   0.01593   0.01784   0.02002

 Mulliken charges:
               1
     1  C   -0.757444
     2  C   -0.350778
     3  H    0.144583
     4  H    0.145352
     5  C    1.127297
     6  H    0.136522
     7  C   -0.620529
     8  C   -0.361469
     9  H    0.111048
    10  C    0.459224
    11  H    0.107685
    12  C   -0.349179
    13  C   -0.420011
    14  H    0.109176
    15  H    0.107155
    16  C    0.255599
    17  C   -0.635443
    18  H    0.144300
    19  H    0.133764
    20  H    0.143478
    21  C   -0.288433
    22  H    0.105694
    23  C   -0.555993
    24  H    0.136211
    25  H    0.145724
    26  H    0.141975
    27  H    0.128911
    28  H    0.134117
    29  H    0.157645
    30  C   -0.254884
    31  C    0.883256
    32  H    0.143352
    33  H    0.141215
    34  C    0.828294
    35  H    0.146526
    36  C   -0.910267
    37  C   -0.777200
    38  H    0.112257
    39  C    0.905902
    40  H    0.119753
    41  C   -0.394570
    42  C   -0.362784
    43  H    0.107143
    44  H    0.114278
    45  C   -0.047479
    46  C   -0.688245
    47  H    0.133547
    48  H    0.150903
    49  H    0.141020
    50  C   -0.169338
    51  H    0.155996
    52  C   -0.518590
    53  H    0.140043
    54  H    0.142196
    55  H    0.140463
    56  H    0.141965
    57  H    0.133605
    58  C   -0.813339
    59  C   -0.197547
    60  H    0.145600
    61  H    0.151416
    62  C    0.664679
    63  H    0.153115
    64  C   -0.295726
    65  C   -0.543333
    66  H    0.114428
    67  C    1.145832
    68  H    0.110529
    69  C   -0.814764
    70  C   -0.320235
    71  H    0.113511
    72  H    0.105967
    73  C   -0.130312
    74  C   -0.620950
    75  H    0.130195
    76  H    0.144027
    77  H    0.141272
    78  C   -0.096754
    79  H    0.109869
    80  C   -0.589653
    81  H    0.123734
    82  H    0.128169
    83  H    0.137652
    84  H    0.145347
    85  H    0.130871
    86  H    0.131865
 Sum of Mulliken charges =  -0.00000

 Dipole moment (field-independent basis, Debye):
    X=              0.2252    Y=              0.2306    Z=              0.2478  Tot=              0.4066
 Quadrupole moment (field-independent basis, Debye-Ang):
   XX=           -229.3000   YY=           -214.9694   ZZ=           -221.5461
   XY=             -1.7039   XZ=              1.5815   YZ=              3.7618

 Normal termination of Gaussian 16 at Thu Feb  4 12:15:04 2021.
