 Gaussian 16, Revision A.03,
 Gaussian 16:  ES64L-G16RevA.03 25-Dec-2016

 -------------------------------------------
 #n B3LYP/6-31G(d) Opt geom=check guess=read
 -------------------------------------------

 -------
 dvb_iso
 -------
 Structure from the checkpoint file:  "dvb_iso.chk"
 Charge =  0 Multiplicity = 1

 SCF Done:  E(RB3LYP) =  -1401.99201411     A.U. after    1 cycles

 The electronic state is 1-A.
 Alpha  occ. eigenvalues --  -10.19012 -10.18772 -10.18687 -10.18600 -10.18571
 Alpha  occ. eigenvalues --  -10.18488 -10.18420 -10.18307 -10.18300 -10.18280
 Alpha  occ. eigenvalues --  -10.18227 -10.18037 -10.17950 -10.17898 -10.17848
 Alpha  occ. eigenvalues --  -10.17842 -10.17832 -10.17795 -10.17781 -10.17736
 Alpha  occ. eigenvalues --  -10.17721 -10.17716 -10.17693 -10.17530 -10.17517
 Alpha  occ. eigenvalues --  -10.17489 -10.17432 -10.17394 -10.17314 -10.17263
 Alpha  occ. eigenvalues --  -10.17086 -10.17008 -10.16892 -10.16681 -10.16506
 Alpha  occ. eigenvalues --  -10.16447  -0.85321  -0.85032  -0.84619  -0.81877
 Alpha  occ. eigenvalues --   -0.80610  -0.80013  -0.78713  -0.77320  -0.75018
 Alpha  occ. eigenvalues --   -0.73334  -0.73248  -0.72980  -0.72813  -0.72633
 Alpha  occ. eigenvalues --   -0.71908  -0.70592  -0.70408  -0.68779  -0.65185
 Alpha  occ. eigenvalues --   -0.63082  -0.62987  -0.62173  -0.61007  -0.60732
 Alpha  occ. eigenvalues --   -0.60117  -0.59727  -0.59088  -0.58337  -0.56618
 Alpha  occ. eigenvalues --   -0.55791  -0.54879  -0.54863  -0.53997  -0.49613
 Alpha  occ. eigenvalues --   -0.48858  -0.48602  -0.47025  -0.46538  -0.45577
 Alpha  occ. eigenvalues --   -0.45211  -0.44658  -0.43985  -0.43844  -0.43705
 Alpha  occ. eigenvalues --   -0.43253  -0.42850  -0.42582  -0.42514  -0.42321
 Alpha  occ. eigenvalues --   -0.41538  -0.41397  -0.41290  -0.41015  -0.40891
 Alpha  occ. eigenvalues --   -0.40702  -0.40573  -0.40393  -0.40247  -0.40157
 Alpha  occ. eigenvalues --   -0.39825  -0.39441  -0.39136  -0.38065  -0.37043
 Alpha  occ. eigenvalues --   -0.36648  -0.36513  -0.36159  -0.35609  -0.35314
 Alpha  occ. eigenvalues --   -0.34947  -0.34741  -0.34705  -0.34447  -0.34277
 Alpha  occ. eigenvalues --   -0.33798  -0.33641  -0.33202  -0.32967  -0.32667
 Alpha  occ. eigenvalues --   -0.32314  -0.32274  -0.32086  -0.31766  -0.31540
 Alpha  occ. eigenvalues --   -0.31482  -0.31172  -0.30994  -0.30743  -0.30397
 Alpha  occ. eigenvalues --   -0.30277  -0.29947  -0.23991  -0.23926  -0.23546
 Alpha  occ. eigenvalues --   -0.23079  -0.22379  -0.21313
 Alpha virt. eigenvalues --    0.00305   0.00473   0.00755   0.00927   0.01329
 Alpha virt. eigenvalues --    0.01846   0.08061   0.08343   0.08601   0.09608
 Alpha virt. eigenvalues --    0.09677   0.10105   0.10681   0.10880   0.11525

 Mulliken charges:
               1
     1  C   -0.441979
     2  C   -0.179106
     3  H    0.138131
     4  H    0.149808
     5  C    0.188936
     6  H    0.124592
     7  C   -0.177388
     8  C   -0.184787
     9  H    0.122749
    10  C    0.185702
    11  H    0.122540
    12  C   -0.194173
    13  C   -0.195215
    14  H    0.118501
    15  H    0.116904
    16  C   -0.159634
    17  C   -0.444211
    18  H    0.147914
    19  H    0.139095
    20  H    0.142577
    21  C   -0.245062
    22  H    0.122048
    23  C   -0.454126
    24  H    0.133292
    25  H    0.127415
    26  H    0.165147
    27  H    0.140539
    28  H    0.134448
    29  H    0.144193
    30  C   -0.271828
    31  C   -0.158739
    32  H    0.138485
    33  H    0.131531
    34  C    0.180137
    35  H    0.133764
    36  C   -0.173283
    37  C   -0.199245
    38  H    0.123545
    39  C    0.184641
    40  H    0.118932
    41  C   -0.184732
    42  C   -0.189884
    43  H    0.121855
    44  H    0.118793
    45  C   -0.158588
    46  C   -0.447135
    47  H    0.147724
    48  H    0.137415
    49  H    0.147787
    50  C   -0.246040
    51  H    0.121417
    52  C   -0.457088
    53  H    0.127385
    54  H    0.130649
    55  H    0.142469
    56  H    0.136999
    57  H    0.163355
    58  C   -0.271195
    59  C   -0.358456
    60  H    0.140313
    61  H    0.128558
    62  C    0.193916
    63  H    0.141772
    64  C   -0.198705
    65  C   -0.184029
    66  H    0.116135
    67  C    0.183906
    68  H    0.120973
    69  C   -0.194234
    70  C   -0.175183
    71  H    0.122258
    72  H    0.122369
    73  C   -0.158324
    74  C   -0.452317
    75  H    0.155870
    76  H    0.138995
    77  H    0.140921
    78  C   -0.244179
    79  H    0.124329
    80  C   -0.446494
    81  H    0.130245
    82  H    0.128532
    83  H    0.156590
    84  H    0.139634
    85  H    0.137862
    86  H    0.150763
 Sum of Mulliken charges =  -0.00000

 Dipole moment (field-independent basis, Debye):
    X=              0.0830    Y=              0.1928    Z=              0.0668  Tot=              0.2203
 Quadrupole moment (field-independent basis, Debye-Ang):
   XX=           -223.4309   YY=           -214.9858   ZZ=           -215.5141
   XY=             -0.9137   XZ=             -5.0250   YZ=              1.4860

 Optimization completed.
    -- Stationary point found.

                         Standard orientation:
 ---------------------------------------------------------------------
 Center     Atomic      Atomic             Coordinates (Angstroms)
 Number     Number       Type             X           Y           Z
 ---------------------------------------------------------------------
      1          6           0       -2.847420    4.405643   -1.276958
      2          6           0       -2.488432    3.422997   -0.144277
      3          1           0       -2.243311    5.318838   -1.210023
      4          1           0       -3.904031    4.690258   -1.229748
      5          6           0       -3.396323    2.201115   -0.179137
      6          1           0       -2.684139    3.937491    0.807998
      7          6           0       -3.342349    1.264927   -1.222890
      8          6           0       -4.215142    0.180842   -1.265718
      9          1           0       -2.604519    1.378253   -2.013345
     10          6           0       -5.184103   -0.016206   -0.269102
     11          1           0       -4.138154   -0.523698   -2.090637
     12          6           0       -5.234647    0.915382    0.772650
     13          6           0       -4.358331    2.001782    0.816547
     14          1           0       -5.972624    0.792555    1.562883
     15          1           0       -4.430082    2.711401    1.638720
     16          6           0       -6.152571   -1.190673   -0.317765
     17          6           0       -7.035282   -1.144679   -1.579809
     18          1           0       -7.569927   -0.191450   -1.654022
     19          1           0       -7.776712   -1.952594   -1.564156
     20          1           0       -6.436123   -1.261541   -2.490686
     21          6           0       -5.440510   -2.557548   -0.195103
     22          1           0       -6.818655   -1.095318    0.552291
     23          6           0       -4.679471   -2.752624    1.119499
     24          1           0       -4.750617   -2.683368   -1.041256
     25          1           0       -6.197634   -3.347248   -0.299640
     26          1           0       -3.871950   -2.020600    1.225380
     27          1           0       -4.235118   -3.753421    1.168894
     28          1           0       -5.347811   -2.643184    1.983173
     29          1           0       -2.668337    3.956480   -2.261179
     30          6           0       -0.974902    3.101694   -0.171971
     31          6           0       -0.482439    2.205824    0.998525
     32          1           0       -0.715015    2.657782   -1.139910
     33          1           0       -0.451667    4.066215   -0.141288
     34          6           0       -0.284283    0.734032    0.643380
     35          1           0       -1.279901    2.214691    1.754407
     36          6           0        0.341600    0.296501   -0.529433
     37          6           0        0.533028   -1.062384   -0.783856
     38          1           0        0.708104    1.017169   -1.254015
     39          6           0        0.104359   -2.044400    0.116091
     40          1           0        1.032012   -1.363718   -1.702722
     41          6           0       -0.529184   -1.608499    1.288985
     42          6           0       -0.717409   -0.251433    1.542992
     43          1           0       -0.887521   -2.335038    2.014788
     44          1           0       -1.220852    0.051106    2.459264
     45          6           0        0.303126   -3.524918   -0.182955
     46          6           0       -1.045133   -4.239180   -0.400181
     47          1           0       -1.651052   -4.228351    0.513553
     48          1           0       -0.889687   -5.286547   -0.686530
     49          1           0       -1.627585   -3.751318   -1.189369
     50          6           0        1.137295   -4.248231    0.898865
     51          1           0        0.866182   -3.591978   -1.125443
     52          6           0        2.567945   -3.721344    1.043561
     53          1           0        1.166519   -5.318620    0.651737
     54          1           0        0.617916   -4.175315    1.864470
     55          1           0        3.128554   -3.843959    0.108088
     56          1           0        3.109986   -4.263213    1.827358
     57          1           0        2.578480   -2.656056    1.297628
     58          6           0        0.735925    2.829084    1.746504
     59          6           0        2.004675    3.214038    0.952474
     60          1           0        1.009089    2.162954    2.574519
     61          1           0        0.369215    3.753482    2.214725
     62          6           0        2.958485    2.111772    0.527572
     63          1           0        1.721067    3.795821    0.066754
     64          6           0        3.461040    2.073907   -0.779827
     65          6           0        4.390971    1.113521   -1.175585
     66          1           0        3.119334    2.813078   -1.502228
     67          6           0        4.860903    0.146906   -0.276028
     68          1           0        4.752715    1.120834   -2.201378
     69          6           0        4.362966    0.189590    1.032904
     70          6           0        3.434591    1.152286    1.429249
     71          1           0        4.711663   -0.543267    1.757739
     72          1           0        3.079810    1.151445    2.457109
     73          6           0        5.870897   -0.911980   -0.698945
     74          6           0        5.314233   -1.808297   -1.821640
     75          1           0        4.361899   -2.262257   -1.527231
     76          1           0        6.019102   -2.613560   -2.061313
     77          1           0        5.140164   -1.235225   -2.740295
     78          6           0        7.233088   -0.305004   -1.108290
     79          1           0        6.051726   -1.554128    0.175267
     80          6           0        7.944269    0.457692    0.013309
     81          1           0        7.086294    0.360220   -1.970760
     82          1           0        7.879496   -1.120799   -1.460837
     83          1           0        7.342797    1.302737    0.364911
     84          1           0        8.909311    0.849488   -0.327911
     85          1           0        8.136296   -0.194460    0.874644
     86          1           0        2.566514    3.915122    1.587799
 ---------------------------------------------------------------------

 1\1\GINC-NID00398\FOpt\RB3LYP\6-31G(d)\C36H50\NMARIONI\04-Feb-2021\0\\
 #n B3LYP/6-31G(d) Opt geom=check guess=read\\dvb_iso\\0,1\C,0.57584256
 11,-0.3389737504,-0.2609202102\C,-0.5135171433,-0.8955107268,0.6776939
 368\H,0.9722542212,0.6110049425,0.1182239673\H,0.1771731324,-0.1663318
 647,-1.2663648713\C,-1.1322876528,-2.1607998489,0.0992094671\H,-1.3151
 446584,-0.1440852549,0.7285527521\C,-0.4050661275,-3.3544943604,-0.023
 3671728\C,-0.9704792854,-4.4877359316,-0.602082242\H,0.6173271971,-3.4
 049014892,0.343001959\C,-2.2877030296,-4.4796460581,-1.0876881693\H,-0

 Normal termination of Gaussian 16 at Thu Feb  4 10:45:22 2021.
